10.24614096 -0.00097986 -0.00026854 8.53538475 5.66808049 0.00041704 8.53527626 2.57406695 5.05024529
