0.01097600 0.00831200 0.01772800 4.26675600 1.28589500 2.52546300 4.26643600 2.83388100 0.00006300 8.53531200 4.12088000 2.54220700 5.12335300 -0.00108900 -0.00084300 9.39153900 1.29025600 2.51942700 9.38653800 2.83619300 0.00162800 13.65525300 4.11594200 2.51244700 6.82625400 2.07175600 1.26895900 11.09281400 3.34876700 3.76917700 11.11160900 4.91154500 1.26115800 15.38171800 6.17105500 3.79242200 11.94658300 2.05756200 1.28251300 16.21034100 3.32946400 3.79904800 16.22123700 4.89649600 1.25952800 20.49230900 6.18292900 3.78200600 3.42031100 1.02892800 0.61891300 7.67905600 2.30908000 3.16610600 7.68147600 3.86960800 0.65726400 11.94902800 5.13107500 3.14184600 8.53096100 1.02722100 0.63567200 12.82510000 2.31026800 3.15430500 12.80546500 3.86376600 0.62673200 17.08332100 5.16221900 3.14119500 10.25087000 3.09996500 1.91784400 14.51306100 4.37408700 4.42320200 14.50555500 5.92681500 1.89765800 18.77783100 7.21099100 4.44786500 15.35881500 3.09293400 1.90019300 19.64102800 4.36625600 4.40800400 19.63454100 5.92399000 1.90327900 23.89798400 7.19127900 4.40569800 0.12576000 0.08496500 -0.35770300 4.49795600 1.37295600 2.21087300 4.40109000 3.01590400 -0.32968800 8.61262300 4.29968300 2.19284700 5.18726300 0.19984500 -0.34075700 9.45277700 1.44675100 2.15644100 9.44291900 3.07198600 -0.31652700 13.73697200 4.19809500 2.12959800 6.74175900 1.93951500 1.63689000 10.96359700 3.30904700 4.14564100 11.04523500 4.66493500 1.56901800 15.31894800 5.99776500 4.14743000 11.70827000 1.92611200 1.57564800 16.13394500 3.09532700 4.11423500 16.09882600 4.82895700 1.63430100 20.35987600 6.13109300 4.15587100
