-0.09086000 -0.10052300 -0.11172800 0.05536400 -0.06929800 -0.06829000 -0.00263100 -0.07156000 -0.05163100 -0.01352800 -0.02504500 -0.08602900 0.04188700 0.01049600 0.00877700 -0.01455100 0.02177700 0.15658000 0.06842700 0.00739900 0.03899300 0.07022800 0.06589600 0.12654600 -0.03131000 -0.10971600 0.03095300 0.10673500 -0.04796500 0.26846100 -0.10747500 -0.14908800 -0.01131800 -0.13028500 0.04157300 -0.02359300 0.09057300 0.04632400 -0.25393500 0.07645500 0.13086500 -0.11092600 -0.09062200 -0.03810000 0.04610100 -0.02726900 -0.06235000 0.13134000 -0.06650500 0.08422400 0.05767300 0.02036700 0.04771200 0.02525500 0.05486000 -0.04226600 -0.16553100 0.02935900 0.17874600 0.10070900 0.06423700 0.08982500 -0.07146400 -0.16958300 0.00064200 0.00564300 -0.00718500 -0.07418900 -0.03042100 -0.08068500 -0.11118000 0.20596500 -0.07675500 -0.13076600 -0.26842600 0.03130700 0.01413000 -0.02433300 0.07897500 -0.02387100 -0.05097400 0.02319000 -0.03591600 -0.21928300 0.08463800 0.01320500 -0.03437700 -0.07834600 0.16237300 0.22310900 0.02801400 0.08699700 0.00210200 0.06297000 0.08964900 0.15405200 0.00193500 0.00596100 -0.01036100 -0.00966800 -0.00202600 -0.02434000 -0.00544900 0.01860600 -0.01202000 0.01670000 0.00567400 -0.01582800 0.02004200 0.00497700 -0.02109800 0.00406100 0.02062800 -0.00318800 0.01922100 -0.00057200 -0.05230200 0.00753400 0.00457800 -0.00736400 -0.00509500 0.00506800 0.01364200 -0.01457000 -0.02485800 0.02221000 -0.00934800 0.00492900 0.02010900 -0.00276900 -0.00667600 0.00557600 0.00473400 -0.02304300 0.03927600 -0.00743700 0.00166600 0.02066700 -0.01458300 -0.02344800 0.02347200 0.00240200 -0.00686900 0.01058000
